<VTKFile type="UnstructuredGrid" version="0.1" byte_order="LittleEndian">
   <UnstructuredGrid>
      <Piece  NumberOfPoints="138"  NumberOfCells="27">
         <Points>
            <DataArray type="Float32" NumberOfComponents="3" format="ascii">
0.340593 0.820921 0.919514 0.262278 0.819673 0.789134 0.269237 0.286257 0.767556 0.761974 0.116361 0.753086 0.773566 0.294351 0.743369 0.759618 0.293644 0.757021 0.266488 0.286027 0.770322 0.239678 0.259979 0.797448 0.086735 0.787713 0.784468 0.253018 0.802187 0.789833 0.246153 0.781068 0.771337 0.340355 0.813653 0.925868 0.299400 0.316837 0.767568 0.347334 0.365811 0.763552 0.350327 0.364351 0.767499 0.789146 0.303581 0.743247 0.816774 0.392719 0.873456 0.790209 0.365370 0.366434 0.780977 0.330351 0.584133 0.878296 0.769881 0.927288 0.891798 0.774169 0.910594 0.902538 0.862156 0.840120 0.898369 0.871115 0.842885 0.900158 0.864470 0.840986 0.897674 0.864196 0.843709 0.832855 0.722671 0.971566 0.809816 0.394092 0.883360 0.759191 0.355203 0.867810 0.353939 0.796644 0.939774 0.389501 0.398144 0.839573 0.369399 0.842148 0.361738 0.865154 0.870764 0.370562 0.840909 0.772486 0.301819 0.789145 0.773335 0.266424 0.857923 0.877564 0.369150 0.796175 0.874575 0.324813 0.788024 0.292012 0.289992 0.777750 0.124816 0.280049 0.283967 0.257311 0.235285 0.249032 0.255688 0.271127 0.249694 0.308074 0.323068 0.058504 0.756407 0.280126 0.787487 0.773332 0.206711 0.786422 0.770787 0.265288 0.288601 0.267555 0.020501 0.294344 0.782381 0.273242 0.276125 0.762413 0.273753 0.277447 0.748951 0.288142 0.298277 0.272528 0.235229 0.326928 0.750339 0.337886 0.343951 0.778775 0.327947 0.389087 0.441282 0.409734 0.298081 0.357353 0.320697 0.777891 0.293285 0.279672 0.766453 0.282320 0.268062 0.777871 0.378025 0.365063 0.778656 0.417194 0.359034 0.772890 0.382214 0.369039 0.252523 0.264220 1.000000 0.341991 0.347688 1.000000 0.335517 0.815387 1.000000 0.335589 0.815302 1.000000 0.760267 0.310004 1.000000 0.839384 0.728873 1.000000 0.836213 0.376486 1.000000 0.867290 0.757411 1.000000 0.289003 0.267106 0.000000 0.287606 0.268537 0.000000 0.263559 0.760781 -0.000000 0.294249 0.794380 0.000000 0.753894 0.276103 -0.000000 0.782241 0.782535 -0.000000 0.791089 0.773169 0.000000 0.782965 0.304644 0.000000 0.277779 1.000000 0.273982 0.278600 1.000000 0.000000 0.264028 1.000000 0.778419 0.366035 1.000000 0.371871 0.337530 1.000000 0.900875 0.331117 1.000000 1.000000 0.803077 1.000000 0.331991 0.793862 1.000000 -0.000000 0.859957 1.000000 0.834099 0.820080 1.000000 0.344185 0.904821 1.000000 0.874924 0.887693 1.000000 1.000000 0.281537 -0.000000 0.000000 0.276416 0.000000 0.253004 0.256668 0.000000 0.273230 0.252132 0.000000 0.786532 0.277411 -0.000000 0.761106 0.265895 -0.000000 1.000000 0.769575 0.000000 0.288321 0.785854 0.000000 0.272030 0.772680 -0.000000 -0.000000 0.754678 -0.000000 0.750695 0.763554 -0.000000 0.759671 0.764412 -0.000000 1.000000 1.000000 0.274853 0.280916 1.000000 0.286685 0.000000 1.000000 0.000000 0.263933 1.000000 0.350039 0.359172 1.000000 0.285931 0.749605 1.000000 -0.000000 0.765687 1.000000 0.339452 0.825323 1.000000 0.325413 1.000000 1.000000 0.769819 0.294941 1.000000 0.769672 -0.000000 1.000000 0.866278 0.829808 1.000000 0.876168 0.370153 1.000000 0.791495 0.889047 1.000000 0.774649 1.000000 1.000000 1.000000 0.345097 1.000000 1.000000 0.863830 1.000000 -0.000000 1.000000 1.000000 1.000000 1.000000 1.000000 -0.000000 -0.000000 1.000000 1.000000 -0.000000 -0.000000 0.256296 0.271650 0.000000 0.000000 0.273775 0.000000 0.269268 0.000000 0.000000 0.300271 0.315252 -0.000000 0.276167 0.792301 0.000000 0.274561 0.793898 0.000000 -0.000000 0.782141 -0.000000 0.279676 1.000000 -0.000000 0.754776 0.278278 -0.000000 0.753471 0.000000 -0.000000 0.790650 0.781043 -0.000000 0.758647 0.281844 -0.000000 0.780452 0.791627 0.000000 0.786496 1.000000 -0.000000 1.000000 0.282126 0.000000 1.000000 0.768527 0.000000 -0.000000 1.000000 0.000000 1.000000 1.000000 -0.000000 -0.000000 0.000000 -0.000000 1.000000 -0.000000 
            </DataArray>
         </Points>
         <PointData>
            <DataArray type="Float32" Name="solution" NumberOfComponents="1" format="ascii">
0.203077 0.321087 0.547916 0.236601 0.501025 0.510673 0.479292 0.316926 0.160648 0.321255 0.439931 0.175352 0.593806 0.773483 0.685636 0.454845 0.293144 0.584871 0.639823 0.019600 0.035190 0.023850 0.084843 0.037387 0.041709 0.028989 0.267466 0.358904 0.182155 0.522847 0.498418 0.236246 0.366910 0.391475 0.228479 0.303613 0.422736 0.238449 0.415694 0.420014 0.589359 0.183132 0.311510 0.493105 0.147159 0.426418 0.447539 0.579277 0.527352 0.756849 0.644486 1.050301 0.750361 0.495266 0.486870 0.709313 0.718833 0.841792 0.085984 0.120453 0.086168 0.053704 0.080325 0.010221 0.046357 0.023337 0.102643 0.109523 0.076833 0.078643 0.077213 0.057276 0.052843 0.079732 0.108833 -0.065165 0.046328 0.149011 0.012254 -0.005049 0.080072 -0.074833 -0.019296 0.062753 0.004985 -0.036320 -0.067410 0.076740 0.082834 0.112725 0.097003 -0.079059 0.082889 0.124815 -0.079013 0.093332 0.145475 -0.084402 0.109473 -0.074106 -0.070346 0.140111 0.073828 -0.073563 0.049231 -0.022281 0.068703 -0.071807 -0.033460 0.032430 -0.038674 -0.037938 -0.007967 -0.032730 -0.131027 -0.027376 -0.127679 -0.093720 0.128640 -0.069197 -0.084506 0.130454 0.081083 0.123658 -0.080673 -0.068246 0.084267 -0.088016 0.034937 0.096028 0.038228 -0.082967 -0.071939 -0.078628 -0.092147 -0.081608 -0.126423 -0.125692 
            </DataArray>
         </PointData>
         <Cells>
            <DataArray type="Int32" Name="connectivity" format="ascii">
38 39 44 66 67 86 87 88 118 119 120 136 2 6 7 39 40 88 89 90 118 119 121 122 123 124 7 58 89 91 123 124 125 134 38 39 40 41 44 46 47 48 52 67 68 118 120 121 126 127 2 6 8 10 12 13 40 41 47 49 51 52 121 122 126 128 129 130 6 7 8 9 10 11 12 13 14 28 29 58 59 60 61 122 123 125 130 131 41 45 46 68 69 74 75 126 127 129 132 137 1 8 9 10 30 41 45 46 47 49 50 74 76 77 128 129 132 133 0 1 8 9 11 60 76 78 79 128 130 131 133 135 37 38 44 48 54 66 70 86 87 92 93 94 2 3 4 5 12 13 14 17 18 36 37 38 39 40 48 51 52 53 54 55 57 87 88 90 92 95 2 3 5 6 7 12 14 27 29 58 59 62 89 90 91 95 96 97 42 43 44 45 46 47 48 49 50 51 52 53 54 55 56 57 66 67 68 69 70 71 72 73 0 1 4 5 9 10 11 13 14 15 16 18 19 20 21 23 24 25 26 27 28 29 30 31 32 33 34 35 43 49 50 51 56 57 25 26 27 28 29 59 61 62 63 64 30 33 35 42 43 45 50 69 71 74 75 77 80 81 0 1 22 23 24 30 34 35 76 77 78 80 82 83 0 11 19 22 24 25 28 60 61 63 65 78 79 82 84 85 36 37 53 54 70 73 93 94 98 99 100 116 3 4 15 17 18 36 37 92 93 95 96 98 100 101 102 103 3 4 5 15 16 26 27 62 64 96 97 102 103 104 105 114 17 32 33 36 42 43 53 55 56 72 73 98 99 101 106 107 15 16 17 18 20 21 31 32 55 56 57 101 102 104 106 108 109 110 16 19 20 25 26 63 64 65 104 105 110 111 31 32 33 34 35 42 71 72 80 81 83 106 107 109 112 117 21 22 23 31 34 82 83 84 108 109 112 113 19 20 21 22 23 24 65 84 85 108 110 111 113 115 
            </DataArray>
            <DataArray type="Int32" Name="offsets" format="ascii">
12 26 34 50 68 88 100 118 132 144 170 188 212 246 256 270 284 300 312 328 344 360 378 390 406 418 432 
            </DataArray>
            <DataArray type="Int32" Name="types" format="ascii">
42 42 42 42 42 42 42 42 42 42 42 42 42 42 42 42 42 42 42 42 42 42 42 42 42 42 42 
            </DataArray>
            <DataArray type="Int32" Name="faces" format="ascii">
8 3 44 66 67 4 87 38 39 88 4 88 39 118 119 4 118 120 136 119 5 86 66 44 38 87 5 120 67 66 86 136 5 136 86 87 88 119 6 118 39 38 44 67 120 9 4 123 7 6 122 4 89 7 123 124 4 39 118 121 40 4 88 39 118 119 5 2 6 7 89 90 5 2 40 121 122 6 5 90 88 39 40 2 5 119 88 90 89 124 6 119 124 123 122 121 118 6 4 89 7 58 91 4 125 58 7 123 4 89 7 123 124 4 134 91 58 125 4 124 89 91 134 4 124 134 125 123 10 3 38 44 48 3 41 47 46 4 39 118 121 40 4 127 68 67 120 5 48 52 40 39 38 5 127 126 41 46 68 5 118 121 126 127 120 6 118 39 38 44 67 120 6 121 40 52 47 41 126 7 68 46 47 52 48 44 67 11 3 2 12 6 3 130 8 128 3 129 41 126 4 13 51 49 10 4 47 49 51 52 5 2 40 121 122 6 6 40 52 51 13 12 2 6 121 40 52 47 41 126 6 122 130 128 129 126 121 7 122 6 12 13 10 8 130 7 128 8 10 49 47 41 129 12 3 8 9 10 3 12 13 14 4 123 7 6 122 4 125 58 7 123 4 11 60 61 28 4 28 61 59 29 5 123 125 131 130 122 6 131 60 11 9 8 130 6 125 58 59 61 60 131 7 6 12 14 29 59 58 7 7 122 6 12 13 10 8 130 7 9 11 28 29 14 13 10 8 3 129 41 126 4 69 45 46 68 4 74 45 69 75 4 132 74 75 137 5 127 126 41 46 68 5 137 75 69 68 127 5 126 129 132 137 127 6 129 41 46 45 74 132 11 3 8 9 10 3 41 47 46 4 30 77 76 1 4 128 133 132 129 5 77 30 50 45 74 5 50 49 47 46 45 5 133 76 77 74 132 6 1 76 133 128 8 9 6 9 10 49 50 30 1 6 129 41 46 45 74 132 7 128 8 10 49 47 41 129 9 3 130 8 128 4 11 9 1 0 4 1 76 78 0 4 131 60 79 135 5 0 78 79 60 11 5 135 79 78 76 133 5 130 131 135 133 128 6 1 76 133 128 8 9 6 131 60 11 9 8 130 8 3 93 37 92 3 38 44 48 4 66 70 94 86 5 37 93 94 70 54 5 86 66 44 38 87 5 48 54 70 66 44 5 86 94 93 92 87 6 92 37 54 48 38 87 15 3 3 4 5 3 12 13 14 4 55 57 18 17 4 17 36 53 55 4 36 37 54 53 4 87 38 39 88 5 90 88 39 40 2 5 48 52 40 39 38 5 87 92 95 90 88 6 40 52 51 13 12 2 6 92 37 54 48 38 87 7 95 3 5 14 12 2 90 7 4 18 57 51 13 14 5 7 52 51 57 55 53 54 48 8 92 37 36 17 18 4 3 95 11 3 2 12 6 3 95 3 96 4 5 14 29 27 4 89 7 58 91 4 27 29 59 62 5 2 6 7 89 90 5 97 62 59 58 91 6 96 3 5 27 62 97 6 90 95 96 97 91 89 7 95 3 5 14 12 2 90 7 6 12 14 29 59 58 7 14 3 71 42 72 3 44 66 67 3 55 56 57 4 69 45 46 68 4 47 49 51 52 4 73 53 54 70 5 48 54 70 66 44 5 50 49 47 46 45 6 69 45 50 43 42 71 6 50 49 51 57 56 43 7 72 42 43 56 55 53 73 7 68 46 47 52 48 44 67 7 52 51 57 55 53 54 48 8 67 68 69 71 72 73 70 66 19 3 4 18 15 4 11 9 1 0 4 5 14 29 27 4 13 51 49 10 4 21 31 34 23 4 32 56 43 33 5 20 19 25 26 16 5 19 20 21 23 24 5 28 29 27 26 25 5 30 35 33 43 50 5 32 33 35 34 31 6 11 28 25 19 24 0 6 9 10 49 50 30 1 6 4 15 16 26 27 5 6 50 49 51 57 56 43 7 24 23 34 35 30 1 0 7 4 18 57 51 13 14 5 7 9 11 28 29 14 13 10 9 15 18 57 56 32 31 21 20 16 7 4 25 63 64 26 4 28 61 63 25 4 26 64 62 27 4 27 29 59 62 4 28 61 59 29 5 28 29 27 26 25 5 59 62 64 63 61 9 3 33 43 42 4 77 30 35 80 4 74 45 69 75 4 75 81 71 69 5 30 35 33 43 50 5 77 30 50 45 74 5 74 77 80 81 75 6 80 35 33 42 71 81 6 69 45 50 43 42 71 9 3 24 23 22 4 1 76 78 0 4 30 77 76 1 4 77 30 35 80 4 35 80 83 34 5 24 22 82 78 0 5 82 22 23 34 83 6 76 78 82 83 80 77 7 24 23 34 35 30 1 0 10 3 84 22 82 4 11 60 61 28 4 65 63 25 19 4 28 61 63 25 5 0 78 79 60 11 5 24 22 82 78 0 5 79 85 84 82 78 6 11 28 25 19 24 0 6 85 65 19 24 22 84 6 61 63 65 85 79 60 8 4 36 37 54 53 4 73 53 54 70 4 94 116 100 93 4 98 100 116 99 5 98 36 37 93 100 5 99 73 53 36 98 5 37 93 94 70 54 5 70 73 99 116 94 10 3 95 3 96 3 4 18 15 3 93 37 92 4 98 36 17 101 5 101 17 18 15 102 5 98 36 37 93 100 5 98 101 102 103 100 6 103 102 15 4 3 96 6 93 100 103 96 95 92 8 92 37 36 17 18 4 3 95 10 3 3 4 5 4 102 15 16 104 4 26 64 62 27 4 96 103 114 97 5 104 16 26 64 105 5 105 64 62 97 114 5 102 104 105 114 103 6 103 102 15 4 3 96 6 96 3 5 27 62 97 6 4 15 16 26 27 5 10 3 33 43 42 4 17 36 53 55 4 98 36 17 101 4 32 56 43 33 4 72 107 99 73 5 99 73 53 36 98 5 99 107 106 101 98 6 106 32 56 55 17 101 6 107 72 42 33 32 106 7 72 42 43 56 55 53 73 11 3 55 56 57 4 102 15 16 104 4 110 20 16 104 4 55 57 18 17 4 108 21 20 110 4 109 31 21 108 4 106 32 31 109 5 101 17 18 15 102 6 106 32 56 55 17 101 7 101 106 109 108 110 104 102 9 15 18 57 56 32 31 21 20 16 8 4 110 20 16 104 4 65 63 25 19 4 25 63 64 26 4 104 110 111 105 5 20 19 25 26 16 5 104 16 26 64 105 5 110 20 19 65 111 5 64 105 111 65 63 10 3 71 42 72 4 106 32 31 109 4 35 80 83 34 5 32 33 35 34 31 5 112 83 34 31 109 5 71 81 117 107 72 5 80 83 112 117 81 5 107 117 112 109 106 6 107 72 42 33 32 106 6 80 35 33 42 71 81 8 3 84 22 82 4 21 31 34 23 4 109 31 21 108 4 109 112 113 108 5 82 22 23 34 83 5 112 83 34 31 109 5 82 84 113 112 83 6 113 84 22 23 21 108 9 3 24 23 22 4 108 21 20 110 4 65 111 115 85 4 85 115 113 84 5 19 20 21 23 24 5 110 20 19 65 111 5 108 113 115 111 110 6 85 65 19 24 22 84 6 113 84 22 23 21 108 
            </DataArray>
            <DataArray type="Int32" Name="faceoffsets" format="ascii">
45 97 128 187 253 326 371 437 489 534 628 694 781 903 941 993 1045 1104 1149 1208 1267 1326 1392 1437 1496 1541 1593 
            </DataArray>
         </Cells>
      </Piece>  
   </UnstructuredGrid>
</VTKFile>
