<VTKFile type="UnstructuredGrid" version="0.1" byte_order="LittleEndian">
   <UnstructuredGrid>
      <Piece  NumberOfPoints="678"  NumberOfCells="125">
         <Points>
            <DataArray type="Float32" NumberOfComponents="3" format="ascii">
0.699093 0.424759 0.910767 0.125072 0.131030 0.142078 0.130940 0.137183 0.135861 0.898044 0.208728 0.907566 0.269376 0.654110 0.652465 0.367754 0.642247 0.657534 0.361358 0.671499 0.625517 0.488262 0.412857 0.438336 0.125192 0.119511 0.642238 0.124923 0.129328 0.642459 0.128658 0.131970 0.877701 0.145786 0.149210 0.893263 0.125382 0.129795 0.642025 0.169859 0.174765 0.640324 0.404030 0.660796 0.914323 0.204813 0.685849 0.915530 0.398983 0.879978 0.935738 0.159228 0.881461 0.888136 0.192955 0.837793 0.930324 0.166792 0.458751 0.382996 0.197861 0.402022 0.189794 0.180648 0.380381 0.195615 0.134376 0.383136 0.363539 0.479569 0.401174 0.428046 0.439681 0.364840 0.471279 0.196991 0.204551 0.209085 0.668678 0.388192 0.914821 0.459199 0.906284 0.997433 0.460088 0.904770 0.985445 0.458966 0.903451 0.985446 0.450305 0.669702 0.951607 0.676464 0.715570 0.918086 0.137347 0.131061 0.128786 0.623502 0.151381 0.703422 0.408177 0.645837 0.929000 0.169791 0.639274 0.920778 0.204176 0.681728 0.919813 0.384166 0.118716 0.888790 0.153982 0.157497 0.892934 0.184452 0.398412 0.933790 0.387084 0.403406 0.940810 0.178645 0.183588 0.652744 0.181754 0.185725 0.861230 0.161716 0.275390 0.887381 0.237437 0.457192 0.657244 0.429807 0.381795 0.617882 0.382069 0.170738 0.614847 0.251088 0.173133 0.638921 0.384166 0.154218 0.636953 0.137957 0.378973 0.882254 0.175126 0.386800 0.919830 0.166420 0.376678 0.916891 0.438707 0.453008 0.666971 0.456341 0.416259 0.643028 0.925970 0.693021 0.907544 0.124068 0.384010 0.134372 0.129730 0.138449 0.134580 0.135139 0.136108 0.061231 0.455256 0.931615 0.951012 0.412946 0.940483 0.889029 0.624577 0.907168 0.960190 0.605505 0.906447 0.959680 0.625222 0.903298 0.955676 0.412951 0.650120 0.923999 0.411551 0.654711 0.919511 0.422626 0.655784 0.928311 0.412246 0.639928 0.693696 0.410143 0.658142 0.893323 0.471889 0.701111 0.682548 0.624666 0.642118 0.963892 0.671268 0.709464 0.918091 0.483751 0.666234 0.945097 0.468085 0.446673 0.689601 0.143827 0.637361 0.882962 0.144239 0.399046 0.875344 0.136242 0.385955 0.875327 0.026448 0.388318 0.880908 0.175618 0.454659 0.668402 0.109533 0.385158 0.647264 0.133000 0.384810 0.672299 0.177910 0.479100 0.653705 0.174121 0.480090 0.649008 0.153190 0.870229 0.876453 0.166204 0.869240 0.693041 0.181311 0.685549 0.879468 0.144148 0.639382 0.880875 0.177535 0.634866 0.646813 0.198876 0.664890 0.674183 0.181649 0.638083 0.648796 0.179136 0.634937 0.648777 0.177934 0.909554 0.868813 0.202431 0.927157 0.684681 0.395264 0.963569 0.866755 0.159034 0.881680 0.888346 0.159436 0.956567 0.889284 0.124478 0.892985 0.145431 0.140969 0.655236 0.154412 0.152668 0.645744 0.145012 0.167408 0.485193 0.383880 0.200178 0.600525 0.196044 0.223606 0.449480 0.218797 0.178123 0.453279 0.369288 0.180977 0.447930 0.363282 0.194157 0.447169 0.367926 0.424721 0.435449 0.385779 0.365270 0.443214 0.192563 0.378088 0.676956 0.499732 0.451908 0.512566 0.426476 0.121793 0.383918 0.375359 0.119697 0.389493 0.380828 0.104723 0.377789 0.639600 0.136368 0.336120 0.375831 0.145503 0.141091 0.388458 0.181150 0.176811 0.430340 0.125993 0.136414 0.635676 0.166917 0.174859 0.637203 0.146488 0.150071 0.378540 0.147310 0.142689 0.386715 0.155810 0.159719 0.378216 0.161075 0.155636 0.387530 0.936503 0.200385 0.659145 0.149542 0.149582 0.896864 0.148266 0.154241 0.990287 0.153482 0.153254 0.897047 0.373718 0.109227 0.899646 0.458376 0.170895 0.973202 0.387290 0.121253 0.888728 0.629065 0.116572 0.880075 0.624453 0.151005 0.752544 0.448598 0.350004 0.984663 0.384212 0.122222 0.885458 0.384455 0.155711 0.760917 0.351224 0.161580 0.854001 0.667877 0.387910 0.914339 0.611841 0.162040 0.712877 0.424972 0.179294 0.668863 0.395250 0.395649 0.931558 0.385165 0.385352 0.919169 0.655618 0.417631 0.877524 0.602779 0.410000 0.706396 0.469424 0.451021 0.853320 0.471370 0.437229 0.724496 0.484621 0.422216 0.678543 0.507379 0.426045 0.683799 0.483568 0.431024 0.687505 0.860846 0.627032 0.171422 0.891336 0.497714 0.167794 0.970920 0.421276 0.364311 0.426807 0.743296 0.608964 0.479713 0.735769 0.656389 0.418450 0.718046 0.459474 0.544962 0.718195 0.670356 0.726651 0.943398 0.383911 0.857240 0.933971 0.432296 0.910194 0.931872 0.952853 0.698509 0.973322 0.964907 0.684897 0.960467 0.954102 0.632909 0.435408 0.428591 0.635557 0.437558 0.428176 0.653240 0.447483 0.660662 0.653047 0.448169 0.659796 0.910890 0.185096 0.455022 0.922181 0.187481 0.639815 0.922803 0.176513 0.624749 0.698372 0.153130 0.638674 0.888504 0.156273 0.637723 0.888130 0.148020 0.627355 0.385340 0.171042 0.580665 0.395961 0.184909 0.500963 0.379561 0.172049 0.498597 0.375531 0.108408 0.391543 0.381155 0.109050 0.385721 0.389120 0.160800 0.626937 0.392354 0.159126 0.631665 0.389611 0.157460 0.631392 0.625369 0.105042 0.645080 0.114754 0.872915 0.639209 0.119131 0.856527 0.393476 0.178318 0.637542 0.645107 0.177529 0.636562 0.645093 0.169697 0.669298 0.417680 0.177386 0.640857 0.461429 0.172681 0.635094 0.458114 0.046387 0.632391 0.640365 0.134576 0.643966 0.379556 0.136807 0.641878 0.381471 0.136268 0.633458 0.388947 0.182279 0.961144 0.375415 0.180024 0.961514 0.372834 0.117459 0.881812 0.389951 0.117011 0.893641 0.377844 0.111786 0.883897 0.627868 0.113552 0.877187 0.394947 0.137186 0.629131 0.127794 0.135984 0.406464 0.122309 0.124665 0.395588 0.122531 0.704024 0.176190 0.923146 0.642371 0.134762 0.911065 0.643307 0.125713 0.895627 0.670853 0.156394 0.902700 0.669050 0.150596 0.896350 0.374603 0.129323 0.118824 0.388905 0.142145 0.132702 0.881990 0.646509 0.143957 0.377646 0.387920 0.152226 0.482345 0.398276 0.424351 0.347824 0.181897 0.178615 0.388555 0.146122 0.137168 0.383164 0.137393 0.295025 0.447170 0.186078 0.439713 0.416733 0.134022 0.385698 0.904376 0.126080 0.143823 0.974239 0.487608 0.427356 0.437434 0.855870 0.610727 0.419041 0.978435 0.723473 0.463691 0.937272 0.715080 0.482230 0.860770 0.650115 0.419780 0.923886 0.388343 0.643576 0.960685 0.450520 0.417866 0.907449 0.371384 0.420535 0.910594 0.375119 0.414240 0.764326 0.391985 0.419987 0.758867 0.402287 0.430057 0.911621 0.390322 0.433586 0.906114 0.397045 0.455757 0.913176 0.397295 0.436208 0.893279 0.189601 0.448144 0.905609 0.196245 0.429499 0.713517 0.236649 0.476315 0.685227 0.401901 0.472145 0.691496 0.406043 0.737140 0.686632 0.412393 0.710333 0.926251 0.401222 0.710655 0.925102 0.402775 0.708608 0.926216 0.402686 0.660163 0.622198 0.401966 0.669844 0.631647 0.412902 0.710598 0.652674 0.179353 0.697649 0.624418 0.198517 0.714293 0.637628 0.195611 0.393186 0.900953 0.151614 0.177531 0.951844 0.186895 0.129101 0.902763 0.135737 0.131618 0.900433 0.138381 0.923037 0.696927 0.902547 0.910594 0.932189 0.952670 0.953526 0.967495 0.983383 0.862069 0.974328 0.629680 0.751699 0.902101 0.443523 0.855880 0.927165 0.440593 0.645484 0.144509 0.381269 0.876778 0.139857 0.617382 0.645981 0.152419 0.389760 0.698855 0.140963 0.623361 0.644124 0.104461 0.627614 0.210396 0.997419 0.417915 0.375782 0.967225 0.422639 0.200998 0.935614 0.676794 0.167619 0.952811 0.630542 0.219353 0.931660 0.679780 0.382306 0.915263 0.629958 0.404190 0.975646 0.709209 0.896349 0.178286 0.911499 0.894483 0.177070 0.909443 0.888797 0.172033 0.910108 0.896011 0.158259 0.887536 0.891790 0.154336 0.887833 0.889348 0.154276 0.890385 0.890822 0.120171 0.888364 0.883094 0.647514 0.143584 0.895895 0.634156 0.131647 0.889404 0.637238 0.012984 0.883168 0.646396 0.142701 0.891563 0.900470 0.115868 0.888030 0.896642 0.117709 0.877433 0.885232 0.111702 0.693308 0.926344 0.190851 0.632231 0.913506 0.155480 0.683507 0.917215 0.186386 0.683779 0.875156 0.154067 0.679161 0.460405 0.203395 0.637159 0.420611 0.409499 0.633983 0.416932 0.408885 0.615783 0.395226 0.390240 0.672831 0.168315 0.397905 0.659596 0.162034 0.385983 0.931934 0.385804 0.378197 0.900074 0.249815 0.430404 0.881816 0.379984 0.436403 0.932358 0.386177 0.169021 0.888538 0.438401 0.168913 0.879889 0.163370 0.422529 0.879731 0.162689 0.421642 0.879724 0.163238 0.422501 0.938428 0.412733 0.252719 0.937318 0.407522 0.186388 0.912027 0.432008 0.182725 0.384684 0.387339 0.145160 0.389699 0.142901 0.132602 0.389766 0.146241 0.135956 0.988123 0.415484 0.723811 0.959731 0.406467 0.868325 0.946478 0.377995 0.711809 0.980074 0.407514 0.714798 0.967123 0.668705 0.692261 0.917765 0.372293 0.889502 0.932651 0.385487 0.891888 0.923077 0.677773 0.904173 0.893132 0.397267 0.655467 0.906836 0.374659 0.898436 0.907193 0.392915 0.914397 0.726816 0.424199 0.908808 0.879127 0.427683 0.939564 0.671763 0.458716 0.661375 0.696394 0.433316 0.900921 0.691551 0.447864 0.897338 0.689112 0.436045 0.891960 0.921763 0.696751 0.900530 0.963943 0.677873 0.703026 0.436593 0.887867 0.185249 0.392971 0.891320 0.142933 0.434010 0.715242 0.192486 0.631680 0.881776 0.130684 0.638665 0.874635 0.128991 0.397345 0.671323 0.159558 0.676164 0.673906 0.650361 0.676475 0.674352 0.650676 0.708957 0.670634 0.686337 0.691746 0.630869 0.445095 0.671171 0.462890 0.656506 0.672037 0.462544 0.657471 0.748298 0.688939 0.424109 0.751162 0.693164 0.427386 0.685075 0.476738 0.487195 0.964468 0.666263 0.689282 0.921922 0.679752 0.410113 0.934434 0.691001 0.418653 0.958261 0.565652 0.437363 0.878701 0.422426 0.483442 0.945069 0.483667 0.460671 0.892409 0.400843 0.652118 0.930346 0.432328 0.656934 0.685494 0.960881 0.640947 0.775528 0.953203 0.630855 0.686611 0.934391 0.617039 0.696537 0.929092 0.611913 0.608551 0.895734 0.673415 0.608827 0.913999 0.688703 0.647329 0.957906 0.682116 0.637043 0.735052 0.687809 0.670178 0.708273 0.672518 0.658854 0.898847 0.918046 0.674099 0.915071 0.919265 0.711092 0.678429 0.695644 0.915515 0.719865 0.751258 0.685488 0.717447 0.907654 0.685275 0.714372 0.904281 0.726580 0.679321 0.863421 0.905822 0.890527 0.921613 0.903527 0.715436 0.893453 0.918240 0.891506 0.908155 0.926110 0.883472 0.898349 0.893259 0.731702 0.911925 0.903761 0.720240 0.898728 0.649416 0.144891 0.377444 0.661376 0.156835 0.378120 0.900895 0.150853 0.169252 0.901746 0.128652 0.146553 0.874429 0.139741 0.384858 0.886298 0.127951 0.378677 0.879999 0.133662 0.384904 0.642497 0.383905 0.152275 0.884133 0.388121 0.133543 0.887677 0.384623 0.134014 0.891069 0.139188 0.146637 0.675682 0.183520 0.191786 0.890762 0.208166 0.170738 0.891343 0.161089 0.170189 0.881783 0.169795 0.179437 0.644768 0.132708 0.136794 0.623253 0.156598 0.137915 0.646611 0.156337 0.162221 0.627505 0.132817 0.118748 0.623064 0.137471 0.118703 0.400768 0.647672 0.141340 0.387865 0.390328 0.145296 0.388882 0.421031 0.173500 0.391763 0.418850 0.173809 0.388596 0.413371 0.168221 0.637822 0.649185 0.141036 0.627386 0.652800 0.140527 0.640408 0.414624 0.174315 0.635471 0.408979 0.175118 0.640641 0.390988 0.157480 0.640709 0.383873 0.150416 0.640616 0.383865 0.081417 0.636926 0.380178 0.146573 0.637795 0.651434 0.138906 0.636315 0.652804 0.138019 0.391314 0.889731 0.141423 0.146223 0.886799 0.126822 0.155756 0.648970 0.141963 0.365305 0.655649 0.154190 0.392510 0.667611 0.155098 0.391219 0.656131 0.149097 0.392460 0.656109 0.147987 0.392484 0.659892 0.150889 0.910623 0.962924 0.662881 0.899429 0.957881 0.654047 0.940536 0.891946 0.732611 0.931418 0.820728 0.724872 0.924383 0.883184 0.433989 0.915984 0.927504 0.696369 0.905269 0.931155 0.681358 0.969539 0.671055 0.691873 0.967743 0.677457 0.698977 0.971872 0.679694 0.538093 0.932688 0.882512 0.428233 0.978771 0.733636 0.199809 0.981589 0.893186 0.183000 0.935238 0.691730 0.418672 0.932196 0.852041 0.431214 0.941737 0.919113 0.382272 0.957566 0.932408 0.371750 0.987726 0.898968 0.180745 0.937270 0.690777 0.420635 0.972440 0.687055 0.455863 0.974509 0.675653 0.446864 0.975494 0.684512 0.456726 0.147745 0.154706 1.000000 0.148091 0.154271 1.000000 0.161753 0.377288 1.000000 0.156133 0.639837 1.000000 0.173606 0.390782 1.000000 0.187908 0.679266 1.000000 0.177927 0.851008 1.000000 0.155418 0.878165 1.000000 0.383021 0.107308 1.000000 0.396960 0.397143 1.000000 0.455283 0.165863 1.000000 0.446578 0.352501 1.000000 0.420099 0.639103 1.000000 0.458955 0.906833 1.000000 0.459239 0.906616 1.000000 0.450488 0.659722 1.000000 0.638716 0.116279 1.000000 0.704393 0.162710 1.000000 0.663998 0.403599 1.000000 0.692584 0.438916 1.000000 0.626566 0.634418 1.000000 0.627414 0.912396 1.000000 0.688091 0.706697 1.000000 0.698519 0.975712 1.000000 0.890533 0.156221 1.000000 0.883181 0.437195 1.000000 0.905206 0.414390 1.000000 0.892107 0.157579 1.000000 0.927784 0.683352 1.000000 0.895853 0.721457 1.000000 0.912221 0.934697 1.000000 0.952359 0.966977 1.000000 0.132887 0.134491 0.000000 0.133570 0.397386 0.000000 0.139506 0.140616 -0.000000 0.143388 0.633961 -0.000000 0.141882 0.405382 -0.000000 0.136820 0.895003 -0.000000 0.150442 0.641425 0.000000 0.141062 0.891056 0.000000 0.377628 0.138129 0.000000 0.378514 0.387074 0.000000 0.384029 0.144178 0.000000 0.390929 0.398758 0.000000 0.390375 0.648344 -0.000000 0.402778 0.636403 0.000000 0.389266 0.894531 -0.000000 0.391590 0.896861 0.000000 0.630924 0.136765 -0.000000 0.629418 0.138342 0.000000 0.644941 0.383933 0.000000 0.640455 0.388665 -0.000000 0.637699 0.641786 0.000000 0.637713 0.641773 -0.000000 0.635115 0.886645 0.000000 0.640132 0.881437 0.000000 0.897569 0.133993 0.000000 0.887581 0.143850 -0.000000 0.876654 0.387977 0.000000 0.884600 0.380074 -0.000000 0.888635 0.636351 -0.000000 0.882386 0.891272 -0.000000 0.889990 0.637582 0.000000 0.887075 0.896338 -0.000000 0.131939 1.000000 0.139014 0.140091 1.000000 -0.000000 0.172363 1.000000 0.373463 0.167684 1.000000 0.176666 0.209792 1.000000 0.417850 0.155786 1.000000 0.632518 0.180871 1.000000 0.673054 0.145443 1.000000 0.889300 0.159136 1.000000 0.906396 0.156122 1.000000 1.000000 0.394225 1.000000 0.125794 0.392945 1.000000 -0.000000 0.459977 1.000000 0.180692 0.426325 1.000000 0.394873 0.383662 1.000000 0.422208 0.410145 1.000000 0.709980 0.399919 1.000000 0.880582 0.423081 1.000000 0.722921 0.439541 1.000000 0.940183 0.436892 1.000000 1.000000 0.635731 1.000000 0.142810 0.639289 1.000000 0.000000 0.728738 1.000000 0.370502 0.634083 1.000000 0.450449 0.697226 1.000000 0.180638 0.652831 1.000000 0.681468 0.678770 1.000000 0.653230 0.689351 1.000000 0.948280 0.695340 1.000000 0.954532 0.695710 1.000000 1.000000 0.889164 1.000000 0.105095 0.885019 1.000000 -0.000000 0.869543 1.000000 0.420132 0.931562 1.000000 0.382635 0.866695 1.000000 0.636959 0.899647 1.000000 0.926693 0.904362 1.000000 0.664076 0.955122 1.000000 0.977156 0.953542 1.000000 1.000000 0.132118 -0.000000 0.131530 0.126038 -0.000000 0.138114 0.127421 -0.000000 0.000000 0.148305 -0.000000 0.381757 0.143255 0.000000 0.386754 0.123402 0.000000 0.639334 0.132499 0.000000 0.888691 0.128547 -0.000000 0.644609 0.135991 -0.000000 0.892058 0.134025 -0.000000 1.000000 0.374319 0.000000 0.121325 0.377393 -0.000000 -0.000000 0.381131 0.000000 0.387905 0.386360 0.000000 0.382503 0.395195 0.000000 0.141985 0.381820 0.000000 0.640131 0.397603 0.000000 0.624062 0.382350 0.000000 0.886608 0.373291 0.000000 0.896306 0.382907 -0.000000 1.000000 0.633927 -0.000000 0.127388 0.637808 0.000000 -0.000000 0.637006 0.000000 0.377322 0.640590 0.000000 0.373806 0.636632 -0.000000 0.130215 0.632007 -0.000000 0.640281 0.638035 0.000000 0.634665 0.636485 -0.000000 0.877605 0.646741 0.000000 0.888232 0.641577 0.000000 1.000000 0.895165 -0.000000 -0.000000 0.901785 -0.000000 0.137027 0.898347 0.000000 0.140349 0.878892 0.000000 0.381784 0.882533 -0.000000 0.378287 0.875444 0.000000 0.626590 0.887301 -0.000000 0.881485 0.884002 -0.000000 0.634568 0.896116 -0.000000 0.889731 0.897394 0.000000 1.000000 1.000000 0.914433 0.187585 1.000000 1.000000 0.179712 1.000000 0.938132 0.256522 1.000000 1.000000 0.204549 1.000000 0.130806 0.144844 1.000000 -0.000000 0.137815 1.000000 0.139118 0.000000 1.000000 0.120552 0.387507 1.000000 -0.000000 0.387416 1.000000 0.146254 0.160615 1.000000 0.168814 0.622344 1.000000 0.000000 0.630401 1.000000 0.175970 0.457727 1.000000 0.125160 0.882020 1.000000 0.183408 0.642480 1.000000 -0.000000 0.883761 1.000000 0.175415 0.941874 1.000000 0.161928 1.000000 1.000000 0.386543 0.163163 1.000000 0.381036 -0.000000 1.000000 0.421049 0.364143 1.000000 0.406547 0.179863 1.000000 0.405137 0.710473 1.000000 0.483944 0.423915 1.000000 0.385526 0.911348 1.000000 0.406855 0.879414 1.000000 0.415813 0.723338 1.000000 0.407619 1.000000 1.000000 0.634973 0.120174 1.000000 0.638127 0.000000 1.000000 0.670439 0.443295 1.000000 0.729877 0.194399 1.000000 0.674297 0.690352 1.000000 0.686801 0.461352 1.000000 0.697392 0.915431 1.000000 0.687435 0.926865 1.000000 0.676566 0.692766 1.000000 0.679856 1.000000 1.000000 0.898346 0.177461 1.000000 0.891738 -0.000000 1.000000 0.939659 0.382646 1.000000 0.898013 0.440008 1.000000 0.910263 0.723813 1.000000 0.977467 0.661668 1.000000 0.905672 0.910168 1.000000 0.960056 0.968043 1.000000 0.958669 1.000000 1.000000 1.000000 0.397357 1.000000 1.000000 0.662324 1.000000 1.000000 0.961092 1.000000 0.000000 1.000000 1.000000 1.000000 1.000000 1.000000 -0.000000 -0.000000 1.000000 1.000000 -0.000000 -0.000000 0.127485 0.145586 -0.000000 -0.000000 0.141756 0.000000 0.144748 0.128131 -0.000000 0.141130 -0.000000 -0.000000 0.145817 0.381338 -0.000000 0.139397 0.388438 -0.000000 0.000000 0.386754 0.000000 0.130466 0.637441 -0.000000 0.000000 0.634349 -0.000000 0.134993 0.633085 0.000000 0.133277 0.884365 0.000000 0.000000 0.895668 -0.000000 0.141823 0.892437 -0.000000 0.147262 1.000000 0.000000 0.391844 0.128205 -0.000000 0.392180 0.127862 -0.000000 0.393807 0.000000 0.000000 0.391600 0.377510 0.000000 0.383178 0.637566 -0.000000 0.395513 0.381416 0.000000 0.388878 0.880668 -0.000000 0.387450 0.641811 -0.000000 0.390539 0.882305 0.000000 0.390849 1.000000 -0.000000 0.638078 0.133977 0.000000 0.643577 -0.000000 -0.000000 0.629161 0.389243 -0.000000 0.647797 0.143857 0.000000 0.636210 0.382972 0.000000 0.630911 0.638093 -0.000000 0.630191 0.889946 -0.000000 0.636864 0.883053 -0.000000 0.631529 0.638683 -0.000000 0.631934 1.000000 -0.000000 0.891025 0.135960 0.000000 0.898094 0.128643 -0.000000 0.890499 -0.000000 -0.000000 0.891859 0.387198 0.000000 0.880865 0.398477 -0.000000 0.881145 0.634892 0.000000 0.887432 0.628336 0.000000 0.881218 0.878513 -0.000000 0.885147 0.882475 0.000000 0.881368 1.000000 0.000000 1.000000 0.131918 0.000000 1.000000 0.387242 0.000000 1.000000 0.632968 -0.000000 1.000000 0.883891 0.000000 -0.000000 1.000000 -0.000000 1.000000 1.000000 -0.000000 0.000000 -0.000000 -0.000000 1.000000 -0.000000 
            </DataArray>
         </Points>
         <PointData>
            <DataArray type="Float32" Name="solution" NumberOfComponents="1" format="ascii">
0.248995 0.084078 0.095612 0.041688 0.654726 0.774976 0.761942 1.053328 0.137174 0.143123 0.073972 0.087725 0.172596 0.265663 0.300328 0.141820 0.056574 0.043197 0.052602 0.514588 0.367993 0.325594 0.382393 1.019927 0.949910 0.237450 0.243684 0.000691 -0.005816 -0.006221 0.164029 0.178414 0.079304 0.358245 0.211197 0.099649 0.121484 0.151902 0.116782 0.107857 0.192151 0.275723 0.150720 0.125083 0.645864 0.905610 0.533835 0.355616 0.407835 0.136733 0.119214 0.114391 0.896283 0.942249 0.073125 0.170877 0.084854 0.028228 0.013804 0.041260 0.053703 0.031424 0.043514 0.240889 0.271440 0.238064 0.751877 0.365408 0.687536 0.098388 0.185699 0.189107 0.867823 0.136775 0.171522 0.173071 0.034635 0.522685 0.297359 0.351877 0.529464 0.500714 0.068681 0.172295 0.185329 0.158155 0.447726 0.507724 0.517936 0.470417 0.044969 0.107825 0.035145 0.061843 0.031629 0.048737 0.208388 0.225311 0.511323 0.371959 0.469113 0.550499 0.556054 0.614693 0.953480 0.585417 0.843047 1.009018 0.330378 0.351924 0.284472 0.348829 0.188654 0.315885 0.183172 0.273011 0.210151 0.211557 0.245016 0.258445 0.119749 0.074040 0.008738 0.095255 0.107741 0.031997 0.135484 0.135740 0.342110 0.077447 0.157875 0.335998 0.212046 0.275176 0.423033 0.521070 0.238397 0.287040 0.395305 0.770134 0.488275 0.773633 0.885155 0.884891 0.863566 0.250790 0.177588 0.104048 0.697701 0.667003 0.807045 0.696747 0.151100 0.097887 0.013898 0.010815 0.021926 0.980610 0.961373 0.837105 0.877695 0.151693 0.130440 0.104145 0.376057 0.153906 0.126237 0.523434 0.616081 0.544362 0.321318 0.322207 0.487641 0.481053 0.454221 0.275102 0.136324 0.183924 0.475786 0.451152 0.485423 0.540890 0.509189 0.148144 0.356650 0.396252 0.383707 0.069640 0.078954 0.132172 0.116359 0.108215 0.137858 0.161654 0.182044 0.144952 0.113027 0.090519 0.101976 0.127790 0.135553 0.140550 0.197866 0.212542 0.450300 0.985365 0.267527 0.206360 0.323631 0.616245 0.433568 0.055066 0.112303 0.458222 0.083918 0.210660 0.436123 0.243503 0.118244 0.337128 0.296497 0.649336 0.696739 0.317506 0.359667 0.303979 0.202416 0.176081 0.566344 0.865902 0.844314 0.638896 0.224570 0.224870 0.197048 0.851610 0.839533 0.408352 0.514763 0.485150 0.144114 0.032128 0.054038 0.034299 0.082960 0.016834 0.000224 0.027046 0.252244 0.112271 0.405943 0.161740 0.449887 0.334078 0.272701 0.011245 0.129374 0.096195 0.058044 0.126008 0.276392 0.090758 0.061538 0.028561 0.021149 0.027134 0.033182 0.031302 0.051792 0.181771 0.135854 0.010712 0.177137 0.046029 0.032110 0.042736 0.127082 0.098215 0.125038 0.155421 0.557975 0.899055 0.914870 0.894924 0.486253 0.478594 0.221765 0.233052 0.389086 0.096486 0.185694 0.179642 0.206899 0.198114 0.139732 0.114568 0.142161 0.402146 0.205619 0.213043 0.055648 0.036279 0.168162 0.076884 0.117055 0.062548 0.047083 0.062887 0.347834 0.074316 0.058900 0.257810 0.068286 0.774385 0.322797 0.312471 0.364696 0.071309 0.110603 0.226953 0.154143 0.476595 0.117423 0.137551 0.444611 0.749566 0.733198 0.635036 0.824905 0.852796 0.815773 0.621487 0.594217 0.881714 0.117942 0.237460 0.221100 0.155193 0.408755 0.209583 0.336536 0.227180 0.123645 0.124282 0.189138 0.229553 0.318464 0.259094 0.127815 0.581515 0.622153 0.075659 0.074565 0.572850 0.174701 0.215842 0.229142 0.305186 0.013269 0.100837 0.008457 0.008402 0.090383 0.100683 0.371781 0.422335 0.098537 0.073119 0.198629 0.136346 0.175972 0.432093 0.158181 0.128754 0.094068 0.286545 0.101990 0.130298 0.121623 0.176928 0.217545 0.231721 0.147770 0.179547 0.390954 0.431200 0.536009 0.575930 0.533528 0.406298 0.401240 0.506519 0.544942 0.479260 0.408495 0.230091 0.399124 0.377141 0.371172 0.174365 0.054272 0.215421 0.395413 0.401472 0.399278 0.370059 0.393406 0.043178 0.031529 0.046250 0.084906 0.077193 0.053615 0.044596 0.092069 0.088826 0.098571 0.085532 0.043358 -0.006943 0.203304 0.095913 0.050686 0.035431 0.019122 0.177690 0.103290 0.078682 0.070118 -0.005245 -0.003590 0.028983 0.015912 0.013533 0.007656 0.003517 0.014112 0.007318 0.031463 0.014896 0.029694 0.021773 0.003560 -0.008855 0.018688 0.006016 0.005457 0.024063 0.025515 0.016986 -0.006005 0.019201 -0.008244 -0.007242 0.000097 0.006463 -0.008105 -0.013191 -0.011372 -0.011474 -0.001801 0.017780 0.024833 -0.019917 0.004422 -0.006609 0.013297 -0.004702 -0.017907 0.025999 0.069532 -0.002536 0.043621 0.064808 0.043314 -0.015796 0.001384 0.029494 -0.004531 0.070833 0.039937 0.043041 0.043633 0.004102 -0.010477 0.013778 -0.019491 -0.010004 0.024156 -0.018413 -0.018664 0.024984 0.013203 0.010982 -0.020397 0.024490 0.003450 0.018939 0.014860 0.011457 0.000095 0.000305 -0.014094 0.010903 -0.030435 0.011443 0.027853 0.023226 0.009678 0.004776 0.017422 -0.005651 -0.014178 0.008100 -0.034591 0.018524 0.019810 0.013448 0.024983 0.015188 -0.013378 0.000857 -0.005676 -0.005750 -0.020096 0.004519 0.002671 0.005225 -0.006963 0.011403 -0.002359 -0.001042 -0.015422 -0.017179 -0.018897 0.000486 0.012082 -0.002739 -0.020727 -0.012042 -0.020845 -0.015109 0.020600 -0.030324 0.052887 0.052540 -0.000588 0.069664 0.042386 -0.012354 0.015900 -0.024947 0.003389 -0.029440 0.038404 0.068477 -0.006705 0.043542 0.046898 -0.007577 0.022056 -0.025195 -0.020996 0.013723 -0.021547 -0.006295 0.025327 -0.003415 -0.018446 0.027064 0.013077 -0.019984 0.004708 -0.021052 -0.000644 -0.021949 0.014466 -0.016355 -0.019965 0.013582 -0.031187 -0.000920 0.015017 -0.034453 0.010791 -0.004651 0.009890 -0.021096 -0.007553 -0.010136 0.030527 -0.031447 0.035185 0.018844 0.015369 0.029152 0.010664 0.009861 0.018202 -0.018485 0.006482 -0.025444 0.020034 0.008160 0.012043 0.019799 -0.000991 0.003081 0.027783 -0.014149 0.001116 -0.021095 -0.000849 0.007232 -0.002028 -0.012369 -0.005417 -0.004710 -0.008189 -0.013678 -0.012963 -0.006929 -0.015071 0.001707 -0.012808 -0.010628 -0.016811 -0.023805 -0.016043 -0.020324 0.001290 0.013305 -0.034470 0.027213 -0.030351 -0.001734 -0.017322 -0.019051 -0.017560 -0.020378 -0.010198 0.003762 -0.029920 0.072908 0.047725 0.047603 -0.008529 0.049198 0.007057 -0.033633 0.005389 -0.031271 0.039617 -0.003953 0.062790 0.032065 0.004036 -0.011665 0.067719 -0.031951 -0.014344 0.013339 -0.025563 0.022315 -0.007583 -0.008596 0.005834 -0.020848 0.017419 -0.023977 -0.016605 -0.026324 -0.027933 -0.023485 -0.018507 -0.015470 -0.019522 -0.013113 
            </DataArray>
         </PointData>
         <Cells>
            <DataArray type="Int32" Name="connectivity" format="ascii">