<VTKFile type="UnstructuredGrid" version="0.1" byte_order="LittleEndian">
   <UnstructuredGrid>
      <Piece  NumberOfPoints="2011"  NumberOfCells="343">
         <Points>
            <DataArray type="Float32" NumberOfComponents="3" format="ascii">
0.257867 0.607507 0.488181 0.266291 0.470567 0.467159 0.258633 0.617776 0.498598 0.445566 0.604762 0.591892 0.274603 0.628024 0.605171 0.112576 0.580837 0.633234 0.094587 0.585245 0.754163 0.271664 0.443863 0.486650 0.135204 0.462252 0.662992 0.207174 0.458453 0.470691 0.308889 0.593872 0.434540 0.318293 0.603126 0.437262 0.268259 0.593980 0.297429 0.582270 0.786123 0.941011 0.475230 0.802782 0.783456 0.589471 0.941637 0.620521 0.295888 0.627091 0.620566 0.348751 0.430988 0.109868 0.283653 0.431707 0.112703 0.265337 0.444832 0.267874 0.265582 0.478183 0.292150 0.268060 0.504997 0.293631 0.268536 0.478685 0.294311 0.326002 0.614236 0.428474 0.039362 0.590018 0.760276 0.022729 0.588112 0.932706 0.100731 0.598571 0.767848 0.114686 0.600561 0.788752 0.620140 0.614427 0.803789 0.598547 0.935299 0.473660 0.639022 0.973213 0.474526 0.773344 0.970955 0.468522 0.628316 0.931977 0.583724 0.657565 0.963637 0.569404 0.764517 0.957960 0.604700 0.765136 0.957337 0.605330 0.600701 0.938774 0.468600 0.627877 0.965822 0.463597 0.799916 0.939143 0.420035 0.804892 0.949080 0.434923 0.821131 0.935393 0.433714 0.942649 0.493997 0.936187 0.953123 0.642013 0.946771 0.954553 0.623782 0.917293 0.954100 0.623281 0.927836 0.952489 0.621315 0.927611 0.924799 0.614711 0.949755 0.924009 0.619585 0.955232 0.747354 0.636568 0.809856 0.097376 0.581485 0.607170 0.105072 0.634971 0.425173 0.082089 0.604245 0.426113 0.128903 0.608562 0.278659 0.123181 0.448812 0.304977 0.273440 0.424824 0.107297 0.279082 0.419759 0.102866 0.446531 0.594324 0.502359 0.445843 0.599820 0.455225 0.439267 0.590650 0.462453 0.460492 0.590228 0.575612 0.468865 0.479933 0.586242 0.618529 0.532646 0.608997 0.593968 0.460803 0.610484 0.606791 0.456959 0.602937 0.281112 0.474225 0.452265 0.307699 0.498950 0.427189 0.288054 0.479710 0.360216 0.276727 0.437604 0.488231 0.291881 0.446063 0.284924 0.291860 0.451480 0.288830 0.305221 0.446003 0.285380 0.805640 0.809930 0.785987 0.774776 0.793083 0.884399 0.802805 0.801556 0.793293 0.607949 0.741329 0.800596 0.620156 0.614459 0.803751 0.761092 0.768197 0.800296 0.774198 0.776944 0.787353 0.643428 0.608703 0.615649 0.746691 0.637985 0.803470 0.771214 0.645076 0.778403 0.745952 0.637146 0.803489 0.747816 0.614688 0.774490 0.620300 0.614460 0.803751 0.632758 0.618561 0.604476 0.948318 0.814434 0.322337 0.273686 0.645142 0.797030 0.205776 0.447485 0.660272 0.286015 0.432883 0.799143 0.135885 0.454674 0.670337 0.113266 0.422433 0.665052 0.136098 0.461116 0.777179 0.135725 0.465721 0.770671 0.131467 0.301487 0.652504 0.133700 0.321150 0.637598 0.122298 0.464713 0.750881 0.089288 0.756573 0.810518 0.059176 0.752095 0.917763 0.429866 0.749498 0.618711 0.455323 0.803350 0.485778 0.438535 0.784399 0.645973 0.427132 0.779943 0.460502 0.426353 0.779010 0.461170 0.098501 0.268734 0.444169 0.453452 0.318987 0.127295 0.430160 0.442873 0.104786 0.433960 0.431137 0.119160 0.436541 0.431290 0.121219 0.423060 0.442470 0.253574 0.278862 0.608503 0.287713 0.279107 0.608296 0.287464 0.308904 0.632997 0.312256 0.438813 0.762373 0.115264 0.440673 0.581832 0.244521 0.480970 0.621361 0.142354 0.814056 0.919916 0.576433 0.821993 0.934559 0.434364 0.892633 0.929008 0.415566 0.824598 0.935002 0.433672 0.914443 0.819400 0.409602 0.106222 0.595668 0.247617 0.115046 0.608588 0.260298 0.443240 0.623374 0.434356 0.438929 0.662974 0.433744 0.436363 0.631344 0.426585 0.447729 0.758509 0.436986 0.451021 0.711876 0.302701 0.444292 0.651837 0.321627 0.607969 0.796212 0.476783 0.610469 0.795863 0.477393 0.610192 0.796790 0.476634 0.435127 0.072950 0.081644 0.281905 0.288158 0.316808 0.934489 0.609497 0.295398 0.953172 0.610551 0.317650 0.952313 0.610221 0.312016 0.953893 0.609362 0.313160 0.979199 0.495335 0.295738 0.931771 0.424112 0.441840 0.960289 0.502733 0.459612 0.967348 0.471055 0.454506 0.812546 0.460726 0.487893 0.937946 0.455197 0.475775 0.950319 0.447610 0.466825 0.772470 0.645513 0.136276 0.800365 0.750166 0.277746 0.809604 0.636450 0.277866 0.937961 0.637244 0.269582 0.944777 0.644017 0.269100 0.772991 0.621496 0.748202 0.765065 0.614076 0.750261 0.910813 0.435469 0.610752 0.955137 0.551660 0.645148 0.768141 0.575518 0.618564 0.975845 0.547586 0.775206 0.770811 0.543198 0.771806 0.783948 0.459565 0.448629 0.795507 0.440437 0.466369 0.617452 0.444745 0.443717 0.613713 0.428345 0.457476 0.809290 0.417123 0.440032 0.789914 0.324119 0.430462 0.772394 0.309789 0.447653 0.282203 0.313196 0.952630 0.185731 0.279400 0.811813 0.284986 0.303458 0.819568 0.312301 0.459285 0.795175 0.283846 0.452866 0.770971 0.287306 0.434006 0.797388 0.588374 0.449494 0.623602 0.819597 0.641087 0.974447 0.759055 0.625582 0.910204 0.781922 0.604636 0.936315 0.787586 0.609780 0.937441 0.778091 0.611417 0.927901 0.957648 0.784155 0.815736 0.949018 0.795296 0.815140 0.952667 0.772435 0.932626 0.956880 0.772165 0.937244 0.943992 0.783450 0.933215 0.944316 0.787295 0.937302 0.976464 0.659441 0.970375 0.976268 0.752753 0.960396 0.930999 0.807452 0.961709 0.873263 0.783928 0.947769 0.796481 0.759627 0.966278 0.747470 0.794562 0.970571 0.779973 0.788437 0.928762 0.780798 0.769876 0.951512 0.763221 0.809589 0.927032 0.745863 0.818291 0.942333 0.777045 0.965066 0.959692 0.769357 0.936549 0.938812 0.767451 0.935999 0.940293 0.268642 0.309972 0.952372 0.121952 0.256900 0.951880 0.282176 0.315134 0.954327 0.108791 0.930738 0.951008 0.083550 0.931037 0.924607 0.035692 0.752178 0.921022 0.140203 0.819564 0.977313 0.085858 0.794532 0.918952 0.059822 0.753713 0.919270 0.283039 0.083097 0.096459 0.117493 0.441191 0.450900 0.105326 0.439687 0.429324 0.090158 0.459404 0.408285 0.129085 0.474413 0.480086 0.121597 0.585387 0.497182 0.080922 0.598836 0.430065 0.093250 0.475349 0.591922 0.090622 0.570640 0.594732 0.008776 0.602200 0.432910 0.127846 0.314322 0.461430 0.121030 0.300142 0.446738 0.107517 0.424830 0.449622 0.104918 0.424453 0.445074 0.097953 0.269549 0.445110 0.098214 0.320770 0.585677 0.057484 0.264834 0.577440 0.072306 0.423174 0.605789 0.072076 0.441188 0.590320 0.271991 0.257241 0.086706 0.272475 0.287336 0.109239 0.294167 0.256996 0.109284 0.293478 0.262823 0.112844 0.264113 0.249394 0.080909 0.259419 0.126881 0.110471 0.299772 0.137856 0.148356 0.282046 0.122845 0.134569 0.121670 0.132701 0.120290 0.292492 0.127433 0.254387 0.281413 0.253082 0.281435 0.271131 0.108553 0.258496 0.133083 0.115300 0.260705 0.567200 0.973095 0.650530 0.491263 0.963611 0.630535 0.508454 0.783201 0.769415 0.593794 0.745010 0.786218 0.589244 0.782821 0.748806 0.475198 0.785075 0.765189 0.444942 0.761535 0.765849 0.467017 0.799000 0.664503 0.441821 0.782729 0.648492 0.604163 0.620528 0.809647 0.612505 0.620948 0.803573 0.606206 0.661600 0.802556 0.598314 0.758421 0.602052 0.590761 0.796487 0.647223 0.443077 0.628030 0.614571 0.432503 0.725338 0.622876 0.585537 0.631001 0.594894 0.616809 0.642220 0.591316 0.618192 0.631162 0.600796 0.442998 0.761770 0.623968 0.436758 0.755327 0.624386 0.440180 0.774453 0.639052 0.783913 0.802852 0.766032 0.778497 0.797532 0.741290 0.776106 0.792563 0.769162 0.769563 0.953376 0.759449 0.741291 0.917259 0.627303 0.751461 0.816068 0.633932 0.601138 0.793254 0.748777 0.611625 0.917070 0.621895 0.634504 0.910995 0.600674 0.608027 0.812283 0.641821 0.643285 0.819103 0.606579 0.692325 0.960495 0.782479 0.660409 0.790785 0.804566 0.656873 0.785189 0.799631 0.677717 0.785529 0.799672 0.621581 0.644433 0.586650 0.635744 0.630720 0.591581 0.616282 0.787713 0.478729 0.617424 0.788148 0.501080 0.621406 0.763751 0.579793 0.639387 0.790067 0.583558 0.763276 0.600889 0.620218 0.726142 0.609567 0.619262 0.765784 0.604655 0.624878 0.765330 0.610285 0.630698 0.793166 0.594080 0.448489 0.804510 0.784231 0.438792 0.799230 0.790239 0.440205 0.787153 0.778458 0.627496 0.772562 0.793147 0.622385 0.805316 0.779019 0.614388 0.793018 0.793246 0.608171 0.756540 0.776986 0.115718 0.630515 0.760592 0.122848 0.599451 0.755456 0.097961 0.928426 0.934390 0.318342 0.904881 0.945699 0.433435 0.904786 0.946535 0.434445 0.912325 0.946920 0.441876 0.119775 0.258463 0.968797 0.088605 0.417783 0.937482 0.116701 0.272457 0.931713 0.119537 0.258678 0.948811 0.298828 0.625154 0.622992 0.322272 0.611531 0.746808 0.436972 0.607069 0.602438 0.305766 0.626004 0.622028 0.459491 0.457576 0.729068 0.283236 0.559740 0.622724 0.302734 0.501123 0.777809 0.291527 0.459248 0.771947 0.310807 0.464571 0.787183 0.426131 0.621638 0.737733 0.424233 0.623410 0.737371 0.431571 0.627328 0.625400 0.420750 0.636280 0.635421 0.464200 0.473734 0.593408 0.466099 0.459323 0.610260 0.293225 0.431595 0.616371 0.262546 0.442112 0.656333 0.281911 0.449424 0.738148 0.267753 0.434995 0.649835 0.277864 0.423945 0.645905 0.414883 0.461797 0.790237 0.613208 0.594891 0.806087 0.569718 0.448357 0.759855 0.463729 0.456896 0.747326 0.468626 0.407716 0.789919 0.612724 0.612181 0.810755 0.603818 0.618809 0.811321 0.522764 0.619862 0.800239 0.482310 0.619585 0.794489 0.482552 0.620356 0.795445 0.444195 0.524046 0.762976 0.457370 0.462630 0.748004 0.418960 0.468919 0.779401 0.583038 0.614472 0.921235 0.084281 0.589521 0.931301 0.104801 0.616420 0.919596 0.113074 0.606040 0.903524 0.131692 0.463240 0.945534 0.253085 0.453234 0.959521 0.126304 0.475892 0.929619 0.126483 0.476083 0.929382 0.090364 0.597494 0.922742 0.109184 0.600067 0.903785 0.266522 0.646753 0.613621 0.133769 0.611315 0.623024 0.133181 0.623373 0.604167 0.111334 0.615692 0.769681 0.255985 0.657091 0.798413 0.255816 0.658710 0.800413 0.252275 0.764261 0.794469 0.128415 0.621922 0.791853 0.134301 0.631691 0.801976 0.095460 0.751687 0.795230 0.089798 0.757462 0.790432 0.072012 0.758552 0.769811 0.281193 0.763864 0.465351 0.255512 0.621078 0.501639 0.281637 0.762113 0.597357 0.265760 0.674178 0.609186 0.133336 0.623516 0.603982 0.259575 0.640255 0.603306 0.23
[...]
         <PointData>
            <DataArray type="Float32" Name="solution" NumberOfComponents="1" format="ascii">
0.695632 0.745172 0.690770 0.908807 0.676531 0.309485 0.201606 0.751682 0.362992 0.604274 0.785757 0.797290 0.586669 0.117496 0.373704 0.165153 0.695796 0.297736 0.272250 0.558909 0.600625 0.604749 0.611479 0.794286 0.083186 0.011743 0.192371 0.205024 0.511117 0.199021 0.078352 0.059560 0.191144 0.099044 0.085850 0.086054 0.183617 0.100255 0.108444 0.088665 0.101872 0.037708 0.022748 0.030008 0.029651 0.023579 0.027143 0.030509 0.365455 0.273422 0.291977 0.235708 0.295704 0.310636 0.246670 0.238769 0.954675 0.944605 0.950886 0.941923 0.976848 0.880480 0.910995 0.907943 0.770966 0.814719 0.719717 0.759780 0.628799 0.633223 0.645640 0.201148 0.143348 0.205097 0.405730 0.524164 0.273482 0.266152 0.806784 0.373284 0.376044 0.389207 0.438547 0.517968 0.823717 0.077062 0.417244 0.525933 0.450374 0.362075 0.298185 0.278882 0.277727 0.300662 0.319066 0.264921 0.114933 0.033934 0.660100 0.580115 0.561358 0.625646 0.636815 0.219811 0.336032 0.309529 0.357692 0.369634 0.692938 0.579748 0.593843 0.642074 0.238903 0.669599 0.411134 0.137514 0.111046 0.075352 0.106869 0.138733 0.219901 0.247221 0.908380 0.847709 0.885164 0.677542 0.641671 0.750991 0.584534 0.572786 0.569834 0.054872 0.525081 0.156763 0.117153 0.115688 0.113957 0.052553 0.211818 0.126980 0.102664 0.556318 0.198306 0.155910 0.258102 0.327327 0.390894 0.143316 0.121646 0.440014 0.451895 0.262207 0.127457 0.613602 0.052243 0.432425 0.634793 0.596546 0.925387 0.926049 0.539004 0.513710 0.543171 0.099738 0.240996 0.346268 0.503597 0.518551 0.469862 0.896539 0.040140 0.179539 0.123331 0.122996 0.145560 0.041067 0.051628 0.022960 0.018426 0.022288 0.021562 0.005318 0.006990 0.016441 0.040276 0.043075 0.037419 0.085994 0.062918 0.086433 0.066846 0.010706 0.023292 0.026536 0.095440 0.044664 0.088523 0.011560 0.013475 0.020082 0.013038 0.038949 0.032440 0.063762 0.362946 0.319992 0.266755 0.402260 0.364535 0.238745 0.281532 0.265905 0.031468 0.332919 0.303425 0.326144 0.311417 0.229207 0.252438 0.133443 0.207881 0.215413 0.153826 0.204089 0.204041 0.211435 0.129229 0.101305 0.156623 0.126993 0.057163 0.228758 0.442435 0.178036 0.113091 0.074655 0.107461 0.422684 0.429860 0.433745 0.432784 0.460351 0.514008 0.565278 0.504226 0.526950 0.488033 0.638337 0.526046 0.864241 0.701621 0.863192 0.824342 0.830097 0.638200 0.643194 0.594657 0.254466 0.283629 0.266225 0.066695 0.176984 0.354148 0.414149 0.228644 0.241370 0.476430 0.463280 0.066102 0.308583 0.334111 0.316172 0.817207 0.814556 0.590709 0.584709 0.620928 0.549593 0.613704 0.678273 0.598587 0.599607 0.588817 0.356435 0.358792 0.366022 0.373096 0.339085 0.349701 0.163764 0.235954 0.201291 0.038052 0.049935 0.046499 0.045437 0.027010 0.053382 0.055628 0.041431 0.707201 0.580392 0.897008 0.719564 0.756430 0.714632 0.529316 0.524704 0.517832 0.677917 0.675439 0.845361 0.809688 0.964473 0.943582 0.746253 0.645434 0.569643 0.658872 0.676637 0.592551 0.528474 0.677916 0.716125 0.595706 0.498730 0.497702 0.552984 0.571490 0.563644 0.673584 0.716739 0.627558 0.225502 0.054059 0.077676 0.102667 0.069264 0.098258 0.085813 0.085160 0.069360 0.103312 0.631798 0.362729 0.355446 0.214004 0.394767 0.377031 0.288170 0.221659 0.223438 0.136274 0.116049 0.099097 0.539466 0.674461 0.513056 0.601013 0.368778 0.638057 0.580926 0.621880 0.607973 0.359087 0.402061 0.221194 0.258269 0.204830 0.158255 0.359897 0.054593 0.540223 0.165087 0.056193 0.047411 0.315117 0.340434 0.254458 0.381519 0.355382 0.372048 0.928497 0.991071 0.988840 0.998499 0.765018 0.925281 0.653445 0.684302 0.357983 0.359491 0.385319 0.599919 0.178871 0.176654 0.526221 0.526489 0.480111 0.590303 0.578010 0.596000 0.582197 0.227876 0.376221 0.216213 0.148258 0.945701 0.928265 0.934962 0.991367 0.842675 0.934534 0.723802 0.736163 0.741937 0.748973 0.926864 0.195629 0.161611 0.020670 0.365532 0.262395 0.281622 0.011039 0.009703 0.010886 0.008809 0.008572 0.040306 0.042940 0.107197 0.042796 0.154859 0.162601 0.077632 0.081871 0.189707 0.246841 0.201499 0.081620 0.102654 0.120535 0.089102 0.099386 0.065521 0.092856 0.076639 0.082350 0.188081 0.141756 0.617463 0.296055 0.243585 0.237860 0.102306 0.071469 0.077850 0.067561 0.120962 0.175019 0.209991 0.475854 0.540395 0.150545 0.406804 0.205531 0.162973 0.090895 0.105753 0.346540 0.433580 0.258265 0.120722 0.164028 0.123039 0.299637 0.455269 0.553587 0.279438 0.176429 0.149078 0.522777 0.186015 0.089959 0.084011 0.127312 0.434276 0.428137 0.443775 0.058765 0.707104 0.729094 0.683726 0.707093 0.678550 0.991796 0.990676 0.775124 0.929443 0.784302 0.760303 0.744694 0.769096 0.755643 0.757217 0.753214 0.917787 0.904145 0.644432 0.581861 0.601199 0.602177 0.049566 0.043841 0.090110 0.002607 0.000322 0.084961 0.087749 0.146833 0.094567 0.097839 0.101063 0.353053 0.385676 0.203423 0.367183 0.063476 0.096097 0.162276 0.133240 0.123414 0.126213 0.155235 0.136767 0.154729 0.197001 0.079480 0.071132 0.041510 0.078263 0.072881 0.219163 0.075186 0.267749 0.520656 0.155864 0.192574 0.135938 0.138939 0.309192 0.163651 0.216084 0.126023 0.160791 0.106627 0.390945 0.317514 0.310782 0.289010 0.231690 0.203243 0.201955 0.215791 0.216366 0.105046 0.144401 0.108809 0.228686 0.217158 0.545040 0.546676 0.527751 0.309091 0.237971 0.304859 0.233566 0.522940 0.487689 0.433660 0.437658 0.569157 0.569938 0.570913 0.076594 0.032702 0.010966 0.015924 0.050712 0.040354 0.110800 0.163766 0.100491 0.062057 0.092177 0.102925 0.089586 0.079419 0.063289 0.838243 0.832677 0.821405 0.864587 0.866075 0.852684 0.706765 0.831830 0.674806 0.707478 0.538429 0.571456 0.531829 0.532477 0.580925 0.561222 0.532426 0.396802 0.401103 0.418578 0.417432 0.266098 0.407170 0.078515 0.075573 0.049333 0.044848 0.036863 0.079446 0.198266 0.208130 0.125167 0.160556 0.211890 0.225097 0.050303 0.139643 0.094814 0.431849 0.228536 0.394919 0.166311 0.118385 0.198413 0.067380 0.240028 0.367756 0.240364 0.194196 0.197858 0.175216 0.060303 0.052292 0.167225 0.135531 0.168735 0.157478 0.220802 0.207486 0.200974 0.064276 0.061770 0.051109 0.201763 0.128228 0.108345 0.099209 0.122165 0.088079 0.021039 0.026953 0.050464 0.056084 0.009155 0.060207 0.067961 0.067980 0.033999 0.021243 0.029333 0.021226 0.059665 0.097668 0.102354 0.133069 0.193585 0.099291 0.442350 0.430301 0.547963 0.288793 0.769742 0.786522 0.749300 0.688636 0.793788 0.769074 0.421244 0.759601 0.549800 0.713377 0.742453 0.631261 0.346212 0.033892 0.170081 0.048874 0.092098 0.168371 0.097268 0.130301 0.066784 0.081427 0.250025 0.085374 0.129997 0.118562 0.550306 0.371484 0.356859 0.212225 0.226123 0.117358 0.399836 0.271796 0.550439 0.548074 0.550570 0.545429 0.043515 0.135652 0.064627 0.092253 0.044510 0.042546 0.833838 0.832953 0.799508 0.579197 0.563306 0.725548 0.749084 0.792944 0.399109 0.635929 0.627579 0.291382 0.299695 0.671957 0.663431 0.665660 0.651771 0.379232 0.374845 0.335675 0.290934 0.328370 0.535771 0.236638 0.222988 0.493078 0.394819 0.407921 0.384706 0.256822 0.238415 0.194176 0.372111 0.303539 0.309633 0.124987 0.034610 0.017385 0.040614 0.027415 0.058477 0.307227 0.459731 0.445531 0.405246 0.405905 0.214356 0.390378 0.421586 0.416457 0.321694 0.518819 0.511888 0.519931 0.509493 0.075040 0.078704 0.138663 0.111708 0.150096 0.096782 0.186493 0.222399 0.160117 0.145942 0.218002 0.184896 0.107070 0.033029 0.023544 0.070498 0.015465 0.086754 0.151667 0.138195 0.014774 0.023994 0.040233 0.081422 0.141754 0.125406 0.092496 0.056685 0.042466 0.158888 0.130455 0.158446 0.161378 0.159599 0.108092 0.078118 0.176405 0.171314 0.084003 0.052827 0.111927 0.030518 0.032571 0.895522 0.620126 0.595599 0.452369 0.887887 0.782380 0.718067 0.588837 0.533439 0.613998 0.555462 0.572755 0.513819 0.536337 0.444929 0.445582 0.727784 0.334762 0.353693 0.330175 0.225284 0.038020 0.033540 0.083238 0.041826 0.045924 0.051263 0.068702 0.050045 0.105628 0.135685 0.057885 0.171287 0.116159 0.165941 0.126075 0.108989 0.038480 0.081808 0.031720 0.019937 0.026160 0.036205 0.058209 0.067779 0.024219 0.012510 0.071502 0.072171 0.069221 0.011262 0.014304 0.000907 0.001912 0.001223 0.002043 0.001413 0.018116 0.019164 0.015488 0.011918 0.018510 0.014467 0.396568 0.191034 0.645384 0.594901 0.686808 0.401628 0.404003 0.512500 0.603229 0.604325 0.617999 0.647223 0.010653 0.008489 0.009772 0.010513 0.029424 0.017164 0.000511 0.009823 0.001121 0.006854 0.001609 0.007861 0.273897 0.251936 0.175335 0.167438 0.045284 0.081938 0.232730 0.099016 0.076197 0.020482 0.085529 0.031688 0.051402 0.029473 0.029092 0.145722 0.176378 0.188174 0.139788 0.247539 0.091892 0.225248 0.139877 0.071006 0.062430 0.062370 0.046645 0.096871 0.076550 0.089505 0.102702 0.095966 0.208841 0.120801 0.167893 0.305855 0.072236 0.057007 0.041558 0.044951 0.050193 0.182722 0.171046 0.470178 0.451051 0.321741 0.211835 0.070645 0.332764 0.166874 0.233350 0.003800 0.070597 0.156760 0.096362 0.171316 0.132509 0.283546 0.228924 0.373610 0.237137 0.250721 0.270219 0.312669 0.088634 0.291807 0.322350 0.337746 0.194288 0.224227 0.188722 0.201694 0.061485 0.082592 0.058560 0.066433 0.060021 0.110980 0.080816 0.056225 0.067943 0.077404 0.104892 0.025295 0.027201 0.048676 0.048470 0.705413 0.585534 0.508900 0.517403 0.495646 0.746744 0.749789 0.355631 0.439294 0.280470 0.361801 0.323437 0.344454 0.502446 0.258806 0.235838 0.245999 0.726668 0.677671 0.671340 0.673076 0.465587 0.472265 0.468418 0.480789 0.271151 0.229645 0.375746 0.306000 0.344587 0.349050 0.339120 0.365759 0.363239 0.123188 0.124486 0.108747 0.076541 0.073809 0.112231 0.103813 0.085604 0.081611 0.060967 0.069030 0.043133 0.056931 0.120267 0.109321 0.093426 0.066702 0.078119 0.062324 0.031024 0.031124 0.034022 0.034097 0.031105 0.026090 0.008468 0.023067 0.187519 0.208625 0.216027 0.453129 0.487024 0.546941 0.578566 0.398606 0.370505 0.276350 0.026037 0.077608 0.041437 0.059070 0.054870 0.045227 0.052630 0.044064 0.096132 0.159922 0.003181 0.036063 0.015848 0.281494 0.307360 0.256752 0.262248 0.294899 0.073899 0.187917 0.201401 0.110240 0.105551 0.098321 0.064324 0.086241 0.052697 0.054085 0.039946 0.055602 0.063527 0.063634 0.084347 0.102213 0.032776 0.152310 0.167251 0.352465 0.391861 0.131810 0.135808 0.185193 0.158582 0.062263 0.058479 0.083278 0.388436 0.367275 0.062617 0.063761 0.070458 0.072399 0.038612 0.053952 0.029692 0.033953 0.033243 0.068358 0.091159 0.091405 0.199103 0.051709 0.060722 0.086536 0.050850 0.069833 0.052366 0.106827 0.023504 0.032783 0.045688 0.062079 0.042079 0.068596 0.047472 0.043412 0.028641 0.078566 0.041432 0.072417 0.076052 0.274804 0.079468 0.251997 0.222990 0.072195 0.068054 0.266153 0.239453 0.249187 0.294595 0.296993 0.374416 0.306106 0.320932 0.267438 0.282082 0.089134 0.164420 0.099498 0.114572 0.144920 0.108303 0.117703 0.268431 0.207484 0.241287 0.254477 0.241089 0.440739 0.468111 0.420390 0.476126 0.619323 0.395089 0.725123 0.533819 0.517302 0.514915 0.860823 0.861663 0.824852 0.142040 0.114607 0.094429 0.077958 0.139484 0.007394 0.001640 0.031670 0.029882 0.000378 0.003992 0.024740 0.011713 0.032740 0.045052 0.060889 0.082795 0.096461 0.107316 0.051174 0.057404 0.037417 0.043990 0.009106 0.035958 0.004286 0.004186 0.002414 -0.000855 -0.001704 0.008084 0.003816 0.030728 0.008548 0.111421 0.009497 0.112378 0.063175 0.109448 0.080898 0.012576 0.092156 0.079211 0.051663 0.056313 0.045300 0.042543 0.036835 0.031753 0.034031 0.298436 0.307343 0.364599 0.366177 0.337144 0.290622 0.273514 0.281845 0.366459 0.245560 0.274919 0.232962 0.224546 0.267706 0.277040 0.158584 0.202890 0.225837 0.132245 0.011410 0.070592 0.066019 0.097748 0.041118 0.021238 0.181368 0.140705 0.134356 0.134552 0.118254 0.127526 0.179890 0.043995 0.014591 0.041841 0.066865 0.124480 0.246127 0.099481 0.211618 0.162263 0.257309 0.139823 0.134623 0.086021 0.159089 0.111864 0.124945 0.023602 0.026491 0.024144 0.019399 0.013481 0.023671 0.009900 0.014718 0.030667 0.025543 0.028967 0.009998 0.016495 0.003500 0.018791 0.053551 0.086923 0.085828 0.048307 0.334891 0.424537 0.056963 0.468915 0.058004 0.153548 0.194326 0.211212 0.086575 0.532009 0.527293 0.128500 0.129168 0.582492 0.662005 0.511668 0.648751 0.624521 0.573949 0.072713 0.099669 0.153336 0.017140 0.037478 0.045740 0.040273 0.044500 0.128087 0.311242 0.112152 0.113810 0.114202 0.328722 0.379845 0.029448 0.029716 0.380572 0.072526 0.141410 0.340966 0.338678 0.094744 0.303059 0.327765 0.009337 0.010208 0.037640 0.056101 0.040363 0.051418 0.281800 0.236756 0.290225 0.111422 0.077084 0.134425 0.119654 0.170109 0.094803 0.164479 0.057545 0.051088 0.058734 0.096271 0.079802 0.037560 0.037210 0.134455 0.045164 0.226171 0.124392 0.123868 0.064971 0.039106 0.251704 0.241487 0.225930 0.098177 0.251908 0.241470 0.032824 0.053185 0.153854 0.129912 0.174318 0.199331 0.178823 0.070519 0.068841 0.130831 0.087178 0.163048 0.161129 0.156318 0.150973 0.058013 0.075842 0.057539 0.039628 0.025267 0.434376 0.163396 0.056362 0.048535 0.082795 0.062859 0.459189 0.485168 0.436901 0.241276 0.191449 0.257599 0.259509 0.433183 0.479684 0.502744 0.463131 0.444714 0.489549 0.503992 0.246101 0.268189 0.225254 0.352285 0.242945 0.288703 0.206100 0.179939 0.299650 0.307365 0.299969 0.385092 0.328675 0.322511 0.380231 0.026841 0.034919 0.030606 0.029726 0.046643 0.036659 0.028931 0.019132 0.038147 0.011830 0.026502 0.019470 0.030406 0.079482 0.081848 0.067833 0.118990 0.199936 0.179774 0.062910 0.063518 0.008321 0.061042 0.059103 0.052631 0.070524 0.096433 0.148080 0.039963 0.048689 0.163278 0.221744 0.163213 0.186213 0.152594 0.186241 0.183220 0.188845 0.190320 0.201129 0.206358 0.000368 0.000246 0.002166 0.001425 -0.002188 0.000407 0.001007 0.001916 -0.003748 -0.001835 0.000158 0.000379 0.000208 0.001117 0.001966 -0.000035 -0.001200 0.002390 -0.000790 0.003179 -0.003608 0.001864 -0.002185 0.001311 -0.000557 -0.000964 0.001241 0.000429 0.003739 -0.003493 0.002384 0.000295 0.001152 0.002325 -0.000803 -0.000732 -0.001550 0.001743 0.001920 -0.000621 0.003518 -0.000725 0.000005 0.001057 0.000195 0.001227 -0.003150 -0.004035 -0.000814 0.001711 -0.002703 0.000846 0.000318 -0.000154 -0.000879 0.001794 0.003686 0.000101 -0.001950 0.001294 0.001024 0.001955 -0.002212 -0.000169 -0.000080 -0.001070 -0.002639 0.001083 -0.003330 -0.000668 -0.000052 -0.001088 -0.000244 -0.000863 0.000518 0.000675 0.000037 -0.000383 0.003447 -0.002549 -0.005108 0.001822 0.002253 -0.000985 -0.004699 0.003542 0.000436 -0.002410 0.002793 -0.003925 0.007276 0.005346 0.001351 -0.003816 0.003558 0.001017 0.006171 -0.004544 -0.003085 0.002723 0.002715 0.007709 -0.004459 0.006940 -0.001527 0.002638 0.001680 0.006208 -0.002923 0.007901 -0.006298 0.002226 -0.004323 0.003861 0.005281 0.004436 -0.000158 0.004517 0.005515 0.004862 0.001590 0.004688 -0.005451 0.001580 0.001628 0.002289 -0.001267 0.003071 -0.001830 -0.000139 0.004075 0.004904 0.001988 0.001330 -0.002192 0.000886 0.001110 -0.002467 -0.002037 0.001483 -0.004079 -0.004312 0.003164 0.002381 -0.003438 0.001060 -0.002445 0.000668 0.000780 -0.000298 0.001131 -0.001387 0.001799 -0.001301 0.001414 -0.000226 0.000482 0.001642 0.000354 -0.001504 0.000821 -0.000443 0.001407 -0.002829 0.002336 -0.001674 -0.001661 0.001994 0.001215 0.000054 -0.000609 0.002216 -0.000478 -0.002586 0.001245 -0.000054 -0.001638 0.002339 -0.003133 0.003124 -0.000817 0.001813 0.000891 0.001658 -0.000167 0.000681 0.001601 -0.003545 -0.001275 -0.001644 0.000986 -0.002812 0.001863 -0.001034 0.000562 0.000454 0.001560 0.000943 0.001471 -0.000808 0.002485 -0.002154 -0.000066 -0.000375 0.001597 -0.001869 -0.002501 -0.001288 0.003328 -0.000860 0.001341 -0.001105 0.000927 0.000589 0.002265 0.001459 -0.002005 0.000233 -0.000603 0.002651 -0.001432 0.000981 -0.000097 -0.000864 -0.001311 -0.000529 -0.001147 0.000351 -0.000337 -0.000243 -0.000547 0.000320 0.000095 -0.000069 -0.000742 -0.000881 -0.000328 -0.000617 0.001062 -0.003232 0.001846 0.003679 -0.004805 0.003113 -0.002732 0.001665 -0.001628 -0.000397 -0.001895 0.002844 -0.002884 0.008016 -0.002944 0.007711 -0.001046 0.005353 0.000886 0.002240 0.001938 -0.002853 -0.002570 0.001837 0.001690 -0.003428 0.001493 0.008130 -0.006988 0.004437 0.005256 0.007182 0.001132 0.000553 0.000538 -0.005376 0.008120 -0.002967 -0.004609 0.004738 -0.004886 0.006412 -0.003369 0.004901 0.004605 0.000934 0.007382 0.000338 0.005581 0.001640 -0.002897 -0.003493 0.000606 -0.003489 -0.003857 -0.001243 0.008213 0.000019 0.007171 0.006337 0.000788 -0.000011 0.002324 -0.003111 0.000276 -0.001768 -0.000775 -0.000356 0.000343 -0.004150 0.001343 0.002739 -0.007241 -0.005216 -0.000847 0.001926 0.000840 -0.000440 -0.000535 -0.000793 0.001315 -0.000398 -0.000493 0.001473 -0.001082 -0.002248 0.001707 -0.003975 -0.001728 -0.001864 -0.000352 0.001103 -0.002198 -0.002042 0.001740 0.000329 -0.000430 -0.000454 0.000443 -0.000171 0.001226 -0.002536 -0.000522 0.003284 0.002004 -0.000652 -0.000219 0.001731 0.000193 -0.000180 -0.001074 0.001781 -0.000559 -0.000735 -0.002237 0.002726 -0.003453 0.001763 0.000985 0.000049 0.002004 0.001900 0.001700 -0.001031 -0.000488 0.001966 -0.003248 -0.001006 0.001340 -0.003053 0.002746 0.000366 -0.001358 0.001192 0.001480 0.000044 -0.000146 0.001935 -0.001257 0.002796 -0.001121 -0.000794 0.000664 -0.002058 0.000071 0.000080 0.000911 -0.000595 -0.000228 0.002183 0.002935 -0.000402 0.000411 -0.000563 0.000375 -0.000236 -0.001012 0.000887 -0.000260 -0.000161 -0.000945 0.000428 0.000797 -0.001580 -0.002251 -0.000897 -0.000307 -0.000053 -0.000125 0.000110 -0.000159 -0.001755 -0.001730 -0.000456 -0.001141 -0.000092 0.000043 0.000181 0.000345 0.000380 0.001140 -0.000926 -0.000999 -0.001745 -0.003384 0.001751 -0.002946 -0.003221 0.001989 -0.004408 0.002966 -0.005103 -0.002862 -0.002588 0.002580 -0.002793 -0.001702 0.000870 -0.000640 -0.000449 0.000059 0.002349 -0.003332 0.007555 0.007445 -0.003200 -0.002174 -0.002092 0.006097 0.000897 0.002091 -0.003685 0.001994 -0.002671 0.003761 -0.003857 0.007672 -0.005000 -0.000923 0.004318 0.004293 0.000698 0.004296 0.000752 -0.006264 0.005554 0.001074 -0.002706 0.002743 -0.004258 -0.002950 0.004546 0.000330 0.003630 0.000817 0.002752 0.006377 -0.000671 0.005601 -0.006646 0.001121 -0.003031 0.000624 -0.003433 -0.004086 0.006910 -0.001122 -0.000315 -0.001143 0.005689 0.006427 0.000683 0.001856 -0.001567 0.001896 -0.001790 -0.001683 0.000438 -0.000392 -0.004192 0.002188 -0.003938 -0.003722 0.000585 -0.001676 0.001861 0.002016 -0.002200 0.000753 -0.000298 -0.000485 -0.001716 -0.002237 -0.002659 -0.002177 -0.000629 0.000076 0.000141 0.000219 0.000120 
            </DataArray>
         </PointData>
         <Cells>
            <DataArray type="Int32" Name="connectivity" format="ascii">